# vtk DataFile Version 1.0
3D triangulation data
ASCII
 
DATASET POLYDATA
POINTS 16 float
0.312493 0.936433 0
0.312488 0.811469 0
0.437507 0.936433 0
0.437512 0.811469 0
0.312482 0.686539 0
0.312476 0.561642 0
0.437518 0.686539 0
0.437524 0.561642 0
0.312465 0.436783 0
0.312449 0.311962 0
0.437535 0.436783 0
0.437551 0.311962 0
0.312456 0.187164 0
0.312485 0.0623879 0
0.437544 0.187164 0
0.437515 0.0623879 0
 
POINT_DATA 16
SCALARS uxx float 1
LOOKUP_TABLE default
-6.8806e-06
-1.20292e-05
6.8806e-06
1.20292e-05
-1.76093e-05
-2.38376e-05
1.76093e-05
2.38376e-05
-3.49257e-05
-5.06569e-05
3.49257e-05
5.06569e-05
-4.37996e-05
-1.45966e-05
4.37996e-05
1.45966e-05
 
SCALARS uyy float 1
LOOKUP_TABLE default
-0.00106721
-0.00103088
-0.00106721
-0.00103088
-0.000960955
-0.000858003
-0.000960955
-0.000858003
-0.000716887
-0.000538052
-0.000716887
-0.000538052
-0.000336448
-0.000112149
-0.000336448
-0.000112149
 
SCALARS psigxx float 1
LOOKUP_TABLE default
-0.000195041
0.000913732
-0.000195041
0.000913732
-0.00096093
0.000380074
-0.00096093
0.000380074
-0.000738875
0.00264703
-0.000738875
0.00264703
-0.000931165
-0.00721799
-0.000931165
-0.00721799
 
SCALARS psigxy float 1
LOOKUP_TABLE default
0.000158545
0.000158552
-0.000158545
-0.000158552
0.000191393
0.000191404
-0.000191393
-0.000191404
0.000484603
0.000484666
-0.000484603
-0.000484666
-0.000899529
-0.000899312
0.000899529
0.000899312
 
SCALARS psigyy float 1
LOOKUP_TABLE default
-0.00327783
-0.00280264
-0.00327783
-0.00280264
-0.00946619
-0.00889147
-0.00946619
-0.00889147
-0.0160494
-0.0145983
-0.0160494
-0.0145983
-0.0201351
-0.0228294
-0.0201351
-0.0228294
 
SCALARS e11 float 1
LOOKUP_TABLE default
0.000110087
0.000192453
0.000110087
0.000192453
0.000281737
0.000381354
0.000281737
0.000381354
0.000558689
0.000810214
0.000558689
0.000810214
0.000700531
0.00023351
0.000700531
0.00023351
 
SCALARS e12 float 1
LOOKUP_TABLE default
2.06109e-05
2.06118e-05
-2.06109e-05
-2.06118e-05
2.48811e-05
2.48825e-05
-2.48811e-05
-2.48825e-05
6.29985e-05
6.30066e-05
-6.29985e-05
-6.30066e-05
-0.000116939
-0.000116911
0.000116939
0.000116911
 
SCALARS e22 float 1
LOOKUP_TABLE default
-0.000290676
-0.000290676
-0.000290676
-0.000290676
-0.000823947
-0.000823947
-0.000823947
-0.000823947
-0.00143168
-0.00143168
-0.00143168
-0.00143168
-0.00179598
-0.00179598
-0.00179598
-0.00179598
