# vtk DataFile Version 1.0
3D triangulation data
ASCII
 
DATASET POLYDATA
POINTS 16 float
0.312491 0.936329 0
0.312487 0.81137 0
0.437509 0.936329 0
0.437513 0.81137 0
0.312481 0.686448 0
0.312474 0.561562 0
0.437519 0.686448 0
0.437526 0.561562 0
0.312461 0.436718 0
0.312443 0.311916 0
0.437539 0.436718 0
0.437557 0.311916 0
0.31245 0.187136 0
0.312483 0.0623788 0
0.43755 0.187136 0
0.437517 0.0623788 0
 
POINT_DATA 16
SCALARS uxx float 1
LOOKUP_TABLE default
-8.55532e-06
-1.3229e-05
8.55532e-06
1.3229e-05
-1.90931e-05
-2.63219e-05
1.90931e-05
2.63219e-05
-3.91092e-05
-5.72266e-05
3.91092e-05
5.72266e-05
-4.96031e-05
-1.65301e-05
4.96031e-05
1.65301e-05
 
SCALARS uyy float 1
LOOKUP_TABLE default
-0.00117145
-0.00113002
-0.00117145
-0.00113002
-0.00105196
-0.000937941
-0.00105196
-0.000937941
-0.000781737
-0.000583907
-0.000781737
-0.000583907
-0.000363719
-0.00012124
-0.000363719
-0.00012124
 
SCALARS psigxx float 1
LOOKUP_TABLE default
-5.58961e-05
0.000930431
-5.58961e-05
0.000930431
-0.00116145
0.000408689
-0.00116145
0.000408689
-0.000710594
0.00319059
-0.000710594
0.00319059
-0.00052064
-0.00764895
-0.00052064
-0.00764895
 
SCALARS psigxy float 1
LOOKUP_TABLE default
0.000141034
0.00014104
-0.000141034
-0.00014104
0.000224184
0.000224198
-0.000224184
-0.000224198
0.000558363
0.000558446
-0.000558363
-0.000558446
-0.00102006
-0.00101978
0.00102006
0.00101978
 
SCALARS psigyy float 1
LOOKUP_TABLE default
-0.00367072
-0.00324801
-0.00367072
-0.00324801
-0.0105293
-0.00985635
-0.0105293
-0.00985635
-0.0177265
-0.0160546
-0.0177265
-0.0160546
-0.0215814
-0.0246364
-0.0215814
-0.0246364
 
SCALARS e11 float 1
LOOKUP_TABLE default
0.000138072
0.000211342
0.000138072
0.000211342
0.00030495
0.000421588
0.00030495
0.000421588
0.00062667
0.000916472
0.00062667
0.000916472
0.000794297
0.000264766
0.000794297
0.000264766
 
SCALARS e12 float 1
LOOKUP_TABLE default
1.83345e-05
1.83352e-05
-1.83345e-05
-1.83352e-05
2.91439e-05
2.91457e-05
-2.91439e-05
-2.91457e-05
7.25872e-05
7.2598e-05
-7.25872e-05
-7.2598e-05
-0.000132608
-0.000132572
0.000132608
0.000132572
 
SCALARS e22 float 1
LOOKUP_TABLE default
-0.000331856
-0.000331856
-0.000331856
-0.000331856
-0.000912867
-0.000912867
-0.000912867
-0.000912867
-0.0015854
-0.0015854
-0.0015854
-0.0015854
-0.0019436
-0.0019436
-0.0019436
-0.0019436
