# vtk DataFile Version 1.0
3D triangulation data
ASCII
 
DATASET POLYDATA
POINTS 16 float
0.312493 0.936433 0
0.312488 0.811469 0
0.437507 0.936433 0
0.437512 0.811469 0
0.312482 0.686539 0
0.312476 0.561642 0
0.437518 0.686539 0
0.437524 0.561642 0
0.312465 0.436783 0
0.312449 0.311962 0
0.437535 0.436783 0
0.437551 0.311962 0
0.312456 0.187164 0
0.312485 0.0623878 0
0.437544 0.187164 0
0.437515 0.0623878 0
 
POINT_DATA 16
SCALARS uxx float 1
LOOKUP_TABLE default
-6.88119e-06
-1.20294e-05
6.88119e-06
1.20294e-05
-1.76096e-05
-2.38384e-05
1.76096e-05
2.38384e-05
-3.4927e-05
-5.06586e-05
3.4927e-05
5.06586e-05
-4.3801e-05
-1.4597e-05
4.3801e-05
1.4597e-05
 
SCALARS uyy float 1
LOOKUP_TABLE default
-0.00106724
-0.00103091
-0.00106724
-0.00103091
-0.000960981
-0.000858025
-0.000960981
-0.000858025
-0.000716905
-0.000538065
-0.000716905
-0.000538065
-0.000336456
-0.000112152
-0.000336456
-0.000112152
 
SCALARS psigxx float 1
LOOKUP_TABLE default
-0.000194969
0.000913705
-0.000194969
0.000913705
-0.000961006
0.000380116
-0.000961006
0.000380116
-0.000738826
0.00264715
-0.000738826
0.00264715
-0.00093112
-0.00721813
-0.00093112
-0.00721813
 
SCALARS psigxy float 1
LOOKUP_TABLE default
0.000158531
0.000158538
-0.000158531
-0.000158538
0.00019141
0.000191421
-0.00019141
-0.000191421
0.000484614
0.000484677
-0.000484614
-0.000484677
-0.000899557
-0.00089934
0.000899557
0.00089934
 
SCALARS psigyy float 1
LOOKUP_TABLE default
-0.0032779
-0.00280276
-0.0032779
-0.00280276
-0.00946649
-0.00889172
-0.00946649
-0.00889172
-0.0160498
-0.0145987
-0.0160498
-0.0145987
-0.0201355
-0.0228299
-0.0201355
-0.0228299
 
SCALARS e11 float 1
LOOKUP_TABLE default
0.000110096
0.000192455
0.000110096
0.000192455
0.000281741
0.000381368
0.000281741
0.000381368
0.000558711
0.00081024
0.000558711
0.00081024
0.000700553
0.000233518
0.000700553
0.000233518
 
SCALARS e12 float 1
LOOKUP_TABLE default
2.0609e-05
2.061e-05
-2.0609e-05
-2.061e-05
2.48834e-05
2.48847e-05
-2.48834e-05
-2.48847e-05
6.29999e-05
6.3008e-05
-6.29999e-05
-6.3008e-05
-0.000116942
-0.000116914
0.000116942
0.000116914
 
SCALARS e22 float 1
LOOKUP_TABLE default
-0.000290685
-0.000290685
-0.000290685
-0.000290685
-0.000823971
-0.000823971
-0.000823971
-0.000823971
-0.00143172
-0.00143172
-0.00143172
-0.00143172
-0.00179602
-0.00179602
-0.00179602
-0.00179602
