# vtk DataFile Version 1.0
3D triangulation data
ASCII
 
DATASET POLYDATA
POINTS 16 float
0.3125 0.936604 0
0.3125 0.811633 0
0.4375 0.936604 0
0.4375 0.811633 0
0.3125 0.68669 0
0.3125 0.561775 0
0.4375 0.68669 0
0.4375 0.561775 0
0.3125 0.436889 0
0.3125 0.312031 0
0.4375 0.436889 0
0.4375 0.312031 0
0.3125 0.187201 0
0.3125 0.0624005 0
0.4375 0.187201 0
0.4375 0.0624005 0
 
POINT_DATA 16
SCALARS uxx float 1
LOOKUP_TABLE default
0
0
0
0
0
0
0
0
0
0
0
0
0
0
0
0
 
SCALARS uyy float 1
LOOKUP_TABLE default
-0.000895517
-0.000867266
-0.000895517
-0.000867266
-0.000810346
-0.000725155
-0.000810346
-0.000725155
-0.000611373
-0.000469242
-0.000611373
-0.000469242
-0.000298606
-9.95355e-05
-0.000298606
-9.95355e-05
 
SCALARS psigxx float 1
LOOKUP_TABLE default
-0.00130401
-0.00130401
-0.00130401
-0.00130401
-0.00393295
-0.00393295
-0.00393295
-0.00393295
-0.00656307
-0.00656307
-0.00656307
-0.00656307
-0.00919437
-0.00919437
-0.00919437
-0.00919437
 
SCALARS psigxy float 1
LOOKUP_TABLE default
-3.00584e-15
-2.8464e-15
-3.00599e-15
-2.84609e-15
-1.48825e-15
1.4738e-14
-1.48833e-15
1.47368e-14
1.76694e-15
7.29737e-15
1.76522e-15
7.29701e-15
-1.02505e-15
-3.41609e-16
-1.02506e-15
-3.41654e-16
 
SCALARS psigyy float 1
LOOKUP_TABLE default
-0.00304269
-0.00304269
-0.00304269
-0.00304269
-0.00917687
-0.00917687
-0.00917687
-0.00917687
-0.0153138
-0.0153138
-0.0153138
-0.0153138
-0.0214535
-0.0214535
-0.0214535
-0.0214535
 
SCALARS e11 float 1
LOOKUP_TABLE default
0
0
0
0
0
0
0
0
0
0
0
0
0
0
0
0
 
SCALARS e12 float 1
LOOKUP_TABLE default
-3.90757e-16
-3.7003e-16
-3.90777e-16
-3.69989e-16
-1.93467e-16
1.91595e-15
-1.93478e-16
1.91579e-15
2.29706e-16
9.48648e-16
2.29482e-16
9.486e-16
-1.3327e-16
-4.44136e-17
-1.33271e-16
-4.44195e-17
 
SCALARS e22 float 1
LOOKUP_TABLE default
-0.000226028
-0.000226028
-0.000226028
-0.000226028
-0.000681711
-0.000681711
-0.000681711
-0.000681711
-0.0011376
-0.0011376
-0.0011376
-0.0011376
-0.00159369
-0.00159369
-0.00159369
-0.00159369
