# vtk DataFile Version 1.0
3D triangulation data
ASCII
 
DATASET POLYDATA
POINTS 16 float
0.3125 0.936604 0
0.3125 0.811633 0
0.4375 0.936604 0
0.4375 0.811633 0
0.3125 0.68669 0
0.3125 0.561775 0
0.4375 0.68669 0
0.4375 0.561775 0
0.3125 0.436889 0
0.3125 0.312031 0
0.4375 0.436889 0
0.4375 0.312031 0
0.3125 0.187201 0
0.3125 0.0624005 0
0.4375 0.187201 0
0.4375 0.0624005 0
 
POINT_DATA 16
SCALARS uxx float 1
LOOKUP_TABLE default
0
0
0
0
0
0
0
0
0
0
0
0
0
0
0
0
 
SCALARS uyy float 1
LOOKUP_TABLE default
-0.000895506
-0.000867256
-0.000895506
-0.000867256
-0.000810321
-0.000725136
-0.000810321
-0.000725136
-0.000611344
-0.000469223
-0.000611344
-0.000469223
-0.000298583
-9.95277e-05
-0.000298583
-9.95277e-05
 
SCALARS psigxx float 1
LOOKUP_TABLE default
-0.00130401
-0.00130401
-0.00130401
-0.00130401
-0.00393294
-0.00393294
-0.00393294
-0.00393294
-0.00656306
-0.00656306
-0.00656306
-0.00656306
-0.00919436
-0.00919436
-0.00919436
-0.00919436
 
SCALARS psigxy float 1
LOOKUP_TABLE default
-3.0155e-15
-2.87844e-15
-3.01537e-15
-2.87847e-15
-1.44438e-15
1.47737e-14
-1.44436e-15
1.47732e-14
1.71318e-15
7.25424e-15
1.71203e-15
7.25401e-15
-1.03286e-15
-3.44291e-16
-1.03312e-15
-3.44349e-16
 
SCALARS psigyy float 1
LOOKUP_TABLE default
-0.00304269
-0.00304269
-0.00304269
-0.00304269
-0.00917686
-0.00917686
-0.00917686
-0.00917686
-0.0153138
-0.0153138
-0.0153138
-0.0153138
-0.0214535
-0.0214535
-0.0214535
-0.0214535
 
SCALARS e11 float 1
LOOKUP_TABLE default
0
0
0
0
0
0
0
0
0
0
0
0
0
0
0
0
 
SCALARS e12 float 1
LOOKUP_TABLE default
-3.92018e-16
-3.74199e-16
-3.92001e-16
-3.74203e-16
-1.87769e-16
1.92058e-15
-1.87766e-16
1.92052e-15
2.22715e-16
9.43049e-16
2.22566e-16
9.4302e-16
-1.34275e-16
-4.47586e-17
-1.34308e-16
-4.47662e-17
 
SCALARS e22 float 1
LOOKUP_TABLE default
-0.000226028
-0.000226028
-0.000226028
-0.000226028
-0.00068171
-0.00068171
-0.00068171
-0.00068171
-0.0011376
-0.0011376
-0.0011376
-0.0011376
-0.00159369
-0.00159369
-0.00159369
-0.00159369
